# vtk DataFile Version 3.0
File auto-generated by JuliaFordContourTreeApp.
ASCII
DATASET STRUCTURED_POINTS
DIMENSIONS 5 5 1
ORIGIN 0 0 0
SPACING 1 1 1
POINT_DATA 25
SCALARS volume_scalars char 1
LOOKUP_TABLE default
95 90 98 80 97 86 80 83 80 89 96 80 99 81 94 87 80 84 80 85 93 82 92 88 91
